# vtk DataFile Version 3.0
vtk output
ASCII
DATASET RECTILINEAR_GRID
DIMENSIONS 3 3 3
X_COORDINATES 3 double
-1.0000 0.0000 1.0000
Y_COORDINATES 3 double
-1.0000 0.0000 1.0000
Z_COORDINATES 3 float
-1.0000 0.0000 1.0000
CELL_DATA 8
POINT_DATA 27
SCALARS scalars short
LOOKUP_TABLE default
0 5 10 5 10 15 10 15 20
5 10 15 10 15 20 15 20 25
10 15 20 15 20 25 20 25 30
